                         Program Version 5.0.4 -  RELEASE  -
|  1> # avogadro generated ORCA input file
|  2> # Basic Mode
|  3> #
|  4> ! OptTS NumFreq HF def2-TZVP
|  5>
|  6> %geom
|  7>
|  8> MaxIter 1000
|  9>
| 10> end
| 11>
| 12> * xyz -1 1
| 13>    C        1.07900       -0.55800       -0.01900
| 14>    H        1.80900        0.26700       -0.02400
| 15>    C        0.90000       -1.28100       -1.21900
| 16>    H        0.92200       -0.69000       -2.13700
| 17>    H        1.88700       -2.00600       -1.33700
| 18>    C        0.85700       -1.23300        1.28500
| 19>    H        1.66700       -1.94900        1.48500
| 20>    H        0.82300       -0.51200        2.11100
| 21>    H       -0.09200       -1.78600        1.29300
| 22>   Br       -0.72500        0.76800        0.17500
| 23>    H        0.07500       -1.99700       -1.23700
| 24>    O        2.96400       -2.78400       -1.44400
| 25>    H        2.78400       -3.10100       -2.30900
| 26> *
| 27>
| 28>
| 29>                          ****END OF INPUT****
 Total Charge           Charge          ....   -1
 Multiplicity           Mult            ....    1
 Number of Electrons    NEL             ....   70
FINAL SINGLE POINT ENERGY     -2765.553579870523
FINAL SINGLE POINT ENERGY     -2765.562289864386
FINAL SINGLE POINT ENERGY     -2765.568684674379
FINAL SINGLE POINT ENERGY     -2765.571839197119
FINAL SINGLE POINT ENERGY     -2765.571003009871
FINAL SINGLE POINT ENERGY     -2765.570551838520
FINAL SINGLE POINT ENERGY     -2765.570585973922
FINAL SINGLE POINT ENERGY     -2765.570874540972
FINAL SINGLE POINT ENERGY     -2765.570445004667
FINAL SINGLE POINT ENERGY     -2765.569345430977
FINAL SINGLE POINT ENERGY     -2765.569540396117
FINAL SINGLE POINT ENERGY     -2765.569505687125
FINAL SINGLE POINT ENERGY     -2765.569580717416
FINAL SINGLE POINT ENERGY     -2765.569663149043
FINAL SINGLE POINT ENERGY     -2765.569683683279
FINAL SINGLE POINT ENERGY     -2765.569703709419
FINAL SINGLE POINT ENERGY     -2765.569711602446
FINAL SINGLE POINT ENERGY     -2765.569717957413
FINAL SINGLE POINT ENERGY     -2765.569721046711
                    ***********************HURRAY********************

CARTESIAN COORDINATES (ANGSTROEM)
---------------------------------
  C      0.961036   -0.527857   -0.086452
  H      1.688393    0.258623   -0.087934
  C      0.761708   -1.186052   -1.350651
  H      0.741523   -0.511544   -2.194881
  H      1.798003   -1.874126   -1.373526
  C      0.950142   -1.364261    1.154036
  H      1.780570   -2.055653    1.032590
  H      1.084754   -0.769297    2.045611
  H      0.030815   -1.928575    1.235860
  Br    -0.767796    1.036270    0.353358
  H     -0.091783   -1.853720   -1.359080
  O      3.030307   -2.597631   -1.219667
  H      2.982328   -3.488177   -1.526264

 Multiplicity           Mult            ....    1
 Number of Electrons    NEL             ....   70
 Basis Dimension        Dim             ....  220

ORBITAL ENERGIES
----------------

  NO   OCC          E(Eh)            E(eV)
   0   2.0000    -489.802942    -13328.2156
   1   2.0000     -64.945781     -1767.2645
   2   2.0000     -58.300486     -1586.4369
   3   2.0000     -58.299937     -1586.4219
   4   2.0000     -58.299922     -1586.4215
   5   2.0000     -20.254442      -551.1514
   6   2.0000     -11.172020      -304.0061
   7   2.0000     -11.089509      -301.7609
   8   2.0000     -11.040916      -300.4386
   9   2.0000      -9.618951      -261.7450
  10   2.0000      -7.228470      -196.6967
  11   2.0000      -7.225880      -196.6262
  12   2.0000      -7.225817      -196.6245
  13   2.0000      -2.969804       -80.8125
  14   2.0000      -2.968648       -80.7810
  15   2.0000      -2.968553       -80.7784
  16   2.0000      -2.965271       -80.6891
  17   2.0000      -2.965269       -80.6891
  18   2.0000      -1.010929       -27.5088
  19   2.0000      -0.946598       -25.7582
  20   2.0000      -0.803548       -21.8657
  21   2.0000      -0.779779       -21.2189
  22   2.0000      -0.643893       -17.5212
  23   2.0000      -0.501101       -13.6357
  24   2.0000      -0.463021       -12.5994
  25   2.0000      -0.437615       -11.9081
  26   2.0000      -0.405928       -11.0459
  27   2.0000      -0.382369       -10.4048
  28   2.0000      -0.362350        -9.8601
  29   2.0000      -0.322630        -8.7792
  30   2.0000      -0.247544        -6.7360
  31   2.0000      -0.222077        -6.0430
  32   2.0000      -0.221573        -6.0293
  33   2.0000      -0.205618        -5.5952
  34   2.0000      -0.157516        -4.2862
  35   0.0000       0.246484         6.7072
  36   0.0000       0.282438         7.6855
  37   0.0000       0.308070         8.3830
  38   0.0000       0.314618         8.5612
  39   0.0000       0.340336         9.2610

MULLIKEN ATOMIC CHARGES
-----------------------
   0 C :    0.196908
   1 H :    0.106901
   2 C :   -0.400763
   3 H :    0.064082
   4 H :    0.358803
   5 C :   -0.281876
   6 H :    0.161392
   7 H :    0.092588
   8 H :    0.083890
   9 Br:   -0.656422
  10 H :    0.051750
  11 O :   -1.014706
  12 H :    0.237454
Sum of atomic charges:   -1.0000000

LOEWDIN ATOMIC CHARGES
----------------------
   0 C :   -0.192756
   1 H :    0.134536
   2 C :   -0.341769
   3 H :    0.100331
   4 H :    0.192818
   5 C :   -0.282005
   6 H :    0.137137
   7 H :    0.106405
   8 H :    0.112159
   9 Br:   -0.355643
  10 H :    0.100629
  11 O :   -0.768937
  12 H :    0.057095

  Mayer bond orders larger than 0.100000
B(  0-C ,  1-H ) :   0.9730 B(  0-C ,  2-C ) :   1.1688 B(  0-C ,  5-C ) :   0.9994
B(  0-C ,  9-Br) :   0.5256 B(  2-C ,  3-H ) :   0.9754 B(  2-C ,  4-H ) :   0.5976
B(  2-C , 10-H ) :   0.9685 B(  4-H , 11-O ) :   0.3084 B(  5-C ,  6-H ) :   0.9391
B(  5-C ,  7-H ) :   0.9845 B(  5-C ,  8-H ) :   0.9803 B( 11-O , 12-H ) :   0.9514

FINAL SINGLE POINT ENERGY     -2765.569723012239

DIPOLE MOMENT
-------------
                                X             Y             Z
Electronic contribution:    -18.82884      22.36992       6.43408
Nuclear contribution   :     16.93906     -21.22855      -5.35012
                        -----------------------------------------
Total Dipole Moment    :     -1.88979       1.14137       1.08397
                        -----------------------------------------
Magnitude (a.u.)       :      2.45948
Magnitude (Debye)      :      6.25149

VIBRATIONAL FREQUENCIES
-----------------------

Scaling factor for frequencies =  1.000000000 (already applied!)

   0:         0.00 cm**-1
   1:         0.00 cm**-1
   2:         0.00 cm**-1
   3:         0.00 cm**-1
   4:         0.00 cm**-1
   5:         0.00 cm**-1
   6:      -977.72 cm**-1 ***imaginary mode***
   7:        70.70 cm**-1
   8:        91.10 cm**-1
   9:       121.86 cm**-1
  10:       141.63 cm**-1
  11:       226.19 cm**-1
  12:       275.54 cm**-1
  13:       359.70 cm**-1
  14:       438.20 cm**-1
  15:       494.83 cm**-1
  16:       593.60 cm**-1
  17:       765.36 cm**-1
  18:       950.97 cm**-1
  19:      1005.89 cm**-1
  20:      1031.46 cm**-1
  21:      1076.91 cm**-1
  22:      1192.95 cm**-1
  23:      1273.54 cm**-1
  24:      1338.23 cm**-1
  25:      1500.48 cm**-1
  26:      1539.40 cm**-1
  27:      1583.28 cm**-1
  28:      1598.20 cm**-1
  29:      1608.51 cm**-1
  30:      1625.19 cm**-1
  31:      1652.13 cm**-1
  32:      3158.57 cm**-1
  33:      3187.67 cm**-1
  34:      3234.54 cm**-1
  35:      3247.64 cm**-1
  36:      3260.11 cm**-1
  37:      3363.74 cm**-1
  38:      4086.06 cm**-1

IR SPECTRUM
-----------

 Mode   freq       eps      Int      T**2         TX        TY        TZ
       cm**-1   L/(mol*cm) km/mol    a.u.
----------------------------------------------------------------------------
  7:     70.70   0.003377   17.06  0.014904  (-0.021573  0.111426  0.044977)
  8:     91.10   0.020339  102.79  0.069673  (-0.134336  0.047654  0.222161)
  9:    121.86   0.011897   60.12  0.030466  ( 0.041605  0.089646 -0.143870)
 10:    141.63   0.000615    3.11  0.001355  (-0.030682 -0.003639  0.020013)
 11:    226.19   0.007215   36.46  0.009954  (-0.071771  0.068796 -0.008397)
 12:    275.54   0.001270    6.42  0.001439  (-0.019007  0.032659  0.003267)
 13:    359.70   0.017731   89.60  0.015382  (-0.102174  0.069938 -0.007177)
 14:    438.20   0.001515    7.66  0.001079  ( 0.030049 -0.011222 -0.007072)
 15:    494.83   0.013509   68.27  0.008519  ( 0.087261 -0.026180  0.014816)
 16:    593.60   0.001712    8.65  0.000900  ( 0.026591 -0.000707  0.013878)
 17:    765.36   0.165772  837.74  0.067591  (-0.184372  0.169240  0.070398)
 18:    950.97   0.000465    2.35  0.000152  (-0.012008 -0.002609  0.001204)
 19:   1005.89   0.020359  102.88  0.006316  (-0.066979  0.041327 -0.011042)
 20:   1031.46   0.000059    0.30  0.000018  (-0.002992 -0.001896  0.002306)
 21:   1076.91   0.023851  120.53  0.006912  ( 0.063127 -0.050488 -0.019429)
 22:   1192.95   0.030645  154.87  0.008016  ( 0.052685 -0.067747 -0.025515)
 23:   1273.54   0.010722   54.18  0.002627  ( 0.040273 -0.031197  0.005668)
 24:   1338.23   0.007527   38.04  0.001755  (-0.034353  0.023946 -0.001296)
 25:   1500.48   0.007711   38.97  0.001604  ( 0.034542 -0.018747 -0.007685)
 26:   1539.40   0.004675   23.62  0.000948  ( 0.006908  0.000507 -0.029994)
 27:   1583.28   0.011805   59.66  0.002327  ( 0.033673 -0.022693 -0.026036)
 28:   1598.20   0.002362   11.94  0.000461  ( 0.020590 -0.005778  0.001989)
 29:   1608.51   0.003107   15.70  0.000603  ( 0.021835  0.008206 -0.007663)
 30:   1625.19   0.003413   17.25  0.000655  ( 0.020938 -0.013745  0.005287)
 31:   1652.13   0.002878   14.54  0.000544  (-0.000596 -0.019303 -0.013061)
 32:   3158.57   0.002517   12.72  0.000249  (-0.003751 -0.003077  0.015003)
 33:   3187.67   0.006789   34.31  0.000665  ( 0.009774  0.016025  0.017673)
 34:   3234.54   0.002052   10.37  0.000198  (-0.008238 -0.007993  0.008137)
 35:   3247.64   0.008964   45.30  0.000861  ( 0.010561  0.018049 -0.020593)
 36:   3260.11   0.005777   29.20  0.000553  (-0.011454 -0.013428 -0.015540)
 37:   3363.74   0.001520    7.68  0.000141  (-0.004859 -0.010706 -0.001661)
 38:   4086.06   0.004130   20.87  0.000315  (-0.002275  0.016473  0.006238)

--------------------------
THERMOCHEMISTRY AT 298.15K
--------------------------

Temperature         ... 298.15 K
Pressure            ... 1.00 atm
Total Mass          ... 140.00 AMU

Throughout the following assumptions are being made:
  (1) The electronic state is orbitally nondegenerate
  (2) There are no thermally accessible electronically excited states
  (3) Hindered rotations indicated by low frequency modes are not
      treated as such but are treated as vibrations and this may
      cause some error
  (4) All equations used are the standard statistical mechanics
      equations for an ideal gas
  (5) All vibrations are strictly harmonic

freq.      70.70  E(vib)   ...       0.50
freq.      91.10  E(vib)   ...       0.47
freq.     121.86  E(vib)   ...       0.44
freq.     141.63  E(vib)   ...       0.41
freq.     226.19  E(vib)   ...       0.33
freq.     275.54  E(vib)   ...       0.28
freq.     359.70  E(vib)   ...       0.22
freq.     438.20  E(vib)   ...       0.17
freq.     494.83  E(vib)   ...       0.14
freq.     593.60  E(vib)   ...       0.10
freq.     765.36  E(vib)   ...       0.06
freq.     950.97  E(vib)   ...       0.03
freq.    1005.89  E(vib)   ...       0.02
freq.    1031.46  E(vib)   ...       0.02
freq.    1076.91  E(vib)   ...       0.02
freq.    1192.95  E(vib)   ...       0.01
freq.    1273.54  E(vib)   ...       0.01
freq.    1338.23  E(vib)   ...       0.01
freq.    1500.48  E(vib)   ...       0.00
freq.    1539.40  E(vib)   ...       0.00
freq.    1583.28  E(vib)   ...       0.00
freq.    1598.20  E(vib)   ...       0.00
freq.    1608.51  E(vib)   ...       0.00
freq.    1625.19  E(vib)   ...       0.00
freq.    1652.13  E(vib)   ...       0.00
freq.    3158.57  E(vib)   ...       0.00
freq.    3187.67  E(vib)   ...       0.00
freq.    3234.54  E(vib)   ...       0.00
freq.    3247.64  E(vib)   ...       0.00
freq.    3260.11  E(vib)   ...       0.00
freq.    3363.74  E(vib)   ...       0.00
freq.    4086.06  E(vib)   ...       0.00

------------
INNER ENERGY
------------

The inner energy is: U= E(el) + E(ZPE) + E(vib) + E(rot) + E(trans)
    E(el)   - is the total energy from the electronic structure calculation
              = E(kin-el) + E(nuc-el) + E(el-el) + E(nuc-nuc)
    E(ZPE)  - the the zero temperature vibrational energy from the frequency calculation
    E(vib)  - the the finite temperature correction to E(ZPE) due to population
              of excited vibrational states
    E(rot)  - is the rotational thermal energy
    E(trans)- is the translational thermal energy

Summary of contributions to the inner energy U:
Electronic energy                ...  -2765.56972301 Eh
Zero point energy                ...      0.10501022 Eh      65.89 kcal/mol
Thermal vibrational correction   ...      0.00517769 Eh       3.25 kcal/mol
Thermal rotational correction    ...      0.00141627 Eh       0.89 kcal/mol
Thermal translational correction ...      0.00141627 Eh       0.89 kcal/mol
-----------------------------------------------------------------------
Total thermal energy                  -2765.45670256 Eh

Summary of corrections to the electronic energy:
(perhaps to be used in another calculation)
Total thermal correction                  0.00801023 Eh       5.03 kcal/mol
Non-thermal (ZPE) correction              0.10501022 Eh      65.89 kcal/mol
-----------------------------------------------------------------------
Total correction                          0.11302046 Eh      70.92 kcal/mol

--------
ENTHALPY
--------

The enthalpy is H = U + kB*T
                kB is Boltzmann's constant
Total free energy                 ...  -2765.45670256 Eh
Thermal Enthalpy correction       ...      0.00094421 Eh       0.59 kcal/mol
-----------------------------------------------------------------------
Total Enthalpy                    ...  -2765.45575835 Eh

Note: Only C1 symmetry has been detected, increase convergence thresholds
      if your molecule has a higher symmetry. Symmetry factor of 1.0 is
      used for the rotational entropy correction.

Note: Rotational entropy computed according to Herzberg
Infrared and Raman Spectra, Chapter V,1, Van Nostrand Reinhold, 1945
Point Group:  C1, Symmetry Number:   1
Rotational constants in cm-1:     0.252849     0.031509     0.029106

Vibrational entropy computed according to the QRRHO of S. Grimme
Chem.Eur.J. 2012 18 9955

-------
ENTROPY
-------

The entropy contributions are T*S = T*(S(el)+S(vib)+S(rot)+S(trans))
     S(el)   - electronic entropy
     S(vib)  - vibrational entropy
     S(rot)  - rotational entropy
     S(trans)- translational entropy
The entropies will be listed as multiplied by the temperature to get
units of energy

Electronic entropy                ...      0.00000000 Eh      0.00 kcal/mol
Vibrational entropy               ...      0.00931592 Eh      5.85 kcal/mol
Rotational entropy                ...      0.01346185 Eh      8.45 kcal/mol
Translational entropy             ...      0.01934774 Eh     12.14 kcal/mol
-----------------------------------------------------------------------
Final entropy term                ...      0.04212551 Eh     26.43 kcal/mol

In case the symmetry of your molecule has not been determined correctly
or in case you have a reason to use a different symmetry number we print
out the resulting rotational entropy values for sn=1,12 :
 --------------------------------------------------------
|  sn= 1 | S(rot)=       0.01346185 Eh      8.45 kcal/mol|
|  sn= 2 | S(rot)=       0.01280740 Eh      8.04 kcal/mol|
|  sn= 3 | S(rot)=       0.01242457 Eh      7.80 kcal/mol|
|  sn= 4 | S(rot)=       0.01215294 Eh      7.63 kcal/mol|
|  sn= 5 | S(rot)=       0.01194225 Eh      7.49 kcal/mol|
|  sn= 6 | S(rot)=       0.01177011 Eh      7.39 kcal/mol|
|  sn= 7 | S(rot)=       0.01162456 Eh      7.29 kcal/mol|
|  sn= 8 | S(rot)=       0.01149849 Eh      7.22 kcal/mol|
|  sn= 9 | S(rot)=       0.01138728 Eh      7.15 kcal/mol|
|  sn=10 | S(rot)=       0.01128780 Eh      7.08 kcal/mol|
|  sn=11 | S(rot)=       0.01119781 Eh      7.03 kcal/mol|
|  sn=12 | S(rot)=       0.01111565 Eh      6.98 kcal/mol|
 --------------------------------------------------------

-------------------
GIBBS FREE ENERGY
-------------------

The Gibbs free energy is G = H - T*S

Total enthalpy                    ...  -2765.45575835 Eh
Total entropy correction          ...     -0.04212551 Eh    -26.43 kcal/mol
-----------------------------------------------------------------------
Final Gibbs free energy         ...  -2765.49788386 Eh

For completeness - the Gibbs free energy minus the electronic energy
G-E(el)                           ...      0.07183915 Eh     45.08 kcal/mol

                             ****ORCA TERMINATED NORMALLY****
TOTAL RUN TIME: 0 days 2 hours 23 minutes 10 seconds 263 msec
